Program Version,EnergyPlus, Version 9.0.1-bb7ca4f0da, YMD=2025.07.14 08:18
1,5,Environment Title[],Latitude[deg],Longitude[deg],Time Zone[],Elevation[m]
2,8,Day of Simulation[],Month[],Day of Month[],DST Indicator[1=yes 0=no],Hour[],StartMinute[],EndMinute[],DayType
3,5,Cumulative Day of Simulation[],Month[],Day of Month[],DST Indicator[1=yes 0=no],DayType  ! When Daily Report Variables Requested
4,2,Cumulative Days of Simulation[],Month[]  ! When Monthly Report Variables Requested
5,1,Cumulative Days of Simulation[] ! When Run Period Report Variables Requested
6,1,Calendar Year of Simulation[] ! When Annual Report Variables Requested
136,1,EMS,PUE [] !Hourly
224,1,MAIN ZONE,Zone Air Temperature [C] !Hourly
263,1,PLENUM-1,Zone Air Temperature [C] !Hourly
302,1,SUP-PLENUM-1,Zone Air Temperature [C] !Hourly
341,1,SUP-PLENUM-2,Zone Air Temperature [C] !Hourly
380,1,SUB ZONE,Zone Air Temperature [C] !Hourly
614,1,SYSTEM AVAILABILITY SCHEDULE,Schedule Value [] !Hourly
615,1,ZONE CONTROL TYPE SCHED,Schedule Value [] !Hourly
616,1,HEATING SETPOINT SCHEDULE,Schedule Value [] !Hourly
617,1,SUPPLY AIR SETPOINT SCHEDULE,Schedule Value [] !Hourly
618,1,COOLING RETURN AIR SETPOINT SCHEDULE,Schedule Value [] !Hourly
619,1,DATA CENTER CPU LOADING SCHEDULE,Schedule Value [] !Hourly
620,1,ALWAYS_ON,Schedule Value [] !Hourly
621,1,DATA CENTER OPERATION SCHEDULE,Schedule Value [] !Hourly
622,1,DAT_RESET,Schedule Value [] !Hourly
623,1,AFFMU,Schedule Value [] !Hourly
624,1,SUPPLY INLET NODE,System Node Relative Humidity [%] !Hourly
End of Data Dictionary
1,JUL,  41.98, -87.92,  -6.00, 201.00
2,1, 1, 1, 0, 1, 0.00,60.00,Thursday
614,1.0
615,4.0
616,15.0
617,10.0
618,29.29999999999997
619,1.0
620,1.0
621,1.0
622,23.19635158183861
623,161.3500000000002
136,1.0634227702266892
224,32.70358960381938
263,31.416512880316966
302,23.62315726302076
341,23.140499372789674
380,32.699555491892038
624,7.346290296906821
2,1, 1, 1, 0, 2, 0.00,60.00,Thursday
614,1.0
615,4.0
616,15.0
617,10.0
618,29.29999999999997
619,1.0
620,1.0
621,1.0
622,19.632346978781187
623,161.3500000000002
136,1.0628500531700065
224,28.946015392649348
263,28.670120638452976
302,20.109864251222747
341,20.094464633738484
380,28.925780009076843
624,8.234003799632694
2,1, 1, 1, 0, 3, 0.00,60.00,Thursday
614,1.0
615,4.0
616,15.0
617,10.0
618,29.29999999999997
619,1.0
620,1.0
621,1.0
622,19.397410407405997
623,161.3500000000002
136,1.0609559890973955
224,28.68047177398667
263,28.399887801686455
302,19.864604791619166
341,19.84638551316343
380,28.65673775077435
624,8.370341138463525
2,1, 1, 1, 0, 4, 0.00,60.00,Thursday
614,1.0
615,4.0
616,15.0
617,10.0
618,29.29999999999997
619,1.0
620,1.0
621,1.0
622,19.39285775016115
623,161.3500000000002
136,1.0609818060872412
224,28.676058033858707
263,28.397460459161935
302,19.861071243192993
341,19.843963217730236
380,28.653451974550593
624,8.367659595812482
2,1, 1, 1, 0, 5, 0.00,60.00,Thursday
614,1.0
615,4.0
616,15.0
617,10.0
618,29.29999999999997
619,1.0
620,1.0
621,1.0
622,19.396078429025203
623,161.3500000000002
136,1.061049670749662
224,28.679943107023289
263,28.40348235497343
302,19.865116638308096
341,19.848563287647076
380,28.657910955908567
624,8.364754613585685
2,1, 1, 1, 0, 6, 0.00,60.00,Thursday
614,1.0
615,4.0
616,15.0
617,10.0
618,29.29999999999997
619,1.0
620,1.0
621,1.0
622,19.399725982377839
623,161.3500000000002
136,1.061124316766375
224,28.68424146589528
263,28.409471219227105
302,19.86943713101066
341,19.8532117290164
380,28.66257315001087
624,8.361804775795177
2,1, 1, 1, 0, 7, 0.00,60.00,Thursday
614,1.0
615,4.0
616,15.0
617,10.0
618,29.29999999999997
619,1.0
620,1.0
621,1.0
622,19.400857733660929
623,161.3500000000002
136,1.0611342313134825
224,28.685506490306137
263,28.41124782220988
302,19.87069860999535
341,19.854574798939056
380,28.663942594344716
624,8.360934247182616
2,1, 1, 1, 0, 8, 0.00,60.00,Thursday
614,1.0
615,4.0
616,15.0
617,10.0
618,29.29999999999997
619,1.0
620,1.0
621,1.0
622,19.40658470850482
623,161.3500000000002
136,1.061547231944709
224,28.693492046401074
263,28.427089239863645
302,19.879934615224113
341,19.864360479180549
380,28.672877606178508
624,8.353693250553917
2,1, 1, 1, 0, 9, 0.00,60.00,Thursday
614,1.0
615,4.0
616,15.0
617,10.0
618,29.29999999999997
619,1.0
620,1.0
621,1.0
622,19.461982457622644
623,161.3500000000002
136,1.0636011909357926
224,28.761208097465809
263,28.53608445554711
302,19.950794612482228
341,19.937640119857546
380,28.74576253315016
624,8.301556584952705
2,1, 1, 1, 0,10, 0.00,60.00,Thursday
614,1.0
615,4.0
616,15.0
617,10.0
618,29.29999999999997
619,1.0
620,1.0
621,1.0
622,19.52083504952884
623,161.3500000000002
136,1.0648220051025004
224,28.8287162474555
263,28.6347139018415
302,20.01864775461447
341,20.00730389106728
380,28.816149851346574
624,8.253723934442922
2,1, 1, 1, 0,11, 0.00,60.00,Thursday
614,1.0
615,4.0
616,15.0
617,10.0
618,29.29999999999997
619,1.0
620,1.0
621,1.0
622,19.553772622009487
623,161.3500000000002
136,1.06540335319546
224,28.865942571410259
263,28.690860904316677
302,20.05619314954923
341,20.046265955987488
380,28.85445955401037
624,8.222544836818262
2,1, 1, 1, 0,12, 0.00,60.00,Thursday
614,1.0
615,4.0
616,15.0
617,10.0
618,29.29999999999997
619,1.0
620,1.0
621,1.0
622,19.573377318616349
623,161.3500000000002
136,1.066048356785287
224,28.886837552404797
263,28.72010453461477
302,20.076574129575446
341,20.067245765373987
380,28.87536852192936
624,8.199944639386512
2,1, 1, 1, 0,13, 0.00,60.00,Thursday
614,1.0
615,4.0
616,15.0
617,10.0
618,29.29999999999997
619,1.0
620,1.0
621,1.0
622,19.55930804549833
623,161.3500000000002
136,1.0693055825265888
224,28.868974952970846
263,28.689660475921888
302,20.057678529722133
341,20.04831065349184
380,28.85651142673884
624,8.205899149508417
2,1, 1, 1, 0,14, 0.00,60.00,Thursday
614,1.0
615,4.0
616,15.0
617,10.0
618,29.29999999999997
619,1.0
620,1.0
621,1.0
622,19.5477108960744
623,161.3500000000002
136,1.0729454548342133
224,28.855181651315026
263,28.672843659127353
302,20.044311602120009
341,20.034414468397395
380,28.84196754603364
624,8.210071702066874
2,1, 1, 1, 0,15, 0.00,60.00,Thursday
614,1.0
615,4.0
616,15.0
617,10.0
618,29.29999999999997
619,1.0
620,1.0
621,1.0
622,19.542830693604704
623,161.3500000000002
136,1.0744177824176456
224,28.849950100350854
263,28.661986965985148
302,20.038581010844085
341,20.028745800271847
380,28.836675439806088
624,8.215080646953148
2,1, 1, 1, 0,16, 0.00,60.00,Thursday
614,1.0
615,4.0
616,15.0
617,10.0
618,29.29999999999997
619,1.0
620,1.0
621,1.0
622,19.52312506328875
623,161.3500000000002
136,1.0738891605045494
224,28.827442493878374
263,28.62415062850334
302,20.015072783177513
341,20.004382267548104
380,28.812957537213987
624,8.23299249444275
2,1, 1, 1, 0,17, 0.00,60.00,Thursday
614,1.0
615,4.0
616,15.0
617,10.0
618,29.29999999999997
619,1.0
620,1.0
621,1.0
622,19.496984806705944
623,161.3500000000002
136,1.0733041964632134
224,28.798168363358877
263,28.576328494247908
302,19.984898969587176
341,19.973309691224089
380,28.782390700657005
624,8.255807944313693
2,1, 1, 1, 0,18, 0.00,60.00,Thursday
614,1.0
615,4.0
616,15.0
617,10.0
618,29.29999999999997
619,1.0
620,1.0
621,1.0
622,19.477789126782765
623,161.3500000000002
136,1.072346211856805
224,28.776804429625125
263,28.546286837471209
302,19.963647249438848
341,19.951609201512608
380,28.760441124940127
624,8.270492710717927
2,1, 1, 1, 0,19, 0.00,60.00,Thursday
614,1.0
615,4.0
616,15.0
617,10.0
618,29.29999999999997
619,1.0
620,1.0
621,1.0
622,19.47401319241757
623,161.3500000000002
136,1.0703345867899688
224,28.77173060946192
263,28.541899175390737
302,19.958864106116577
341,19.946252873921165
380,28.754736738783057
624,8.272755713271364
2,1, 1, 1, 0,20, 0.00,60.00,Thursday
614,1.0
615,4.0
616,15.0
617,10.0
618,29.29999999999997
619,1.0
620,1.0
621,1.0
622,19.479409609995807
623,161.3500000000002
136,1.0714087252461496
224,28.777190633118289
263,28.552838611458545
302,19.964779564304697
341,19.951841943232798
380,28.75987504816782
624,8.267587040487703
2,1, 1, 1, 0,21, 0.00,60.00,Thursday
614,1.0
615,4.0
616,15.0
617,10.0
618,29.29999999999997
619,1.0
620,1.0
621,1.0
622,19.483818767139156
623,161.3500000000002
136,1.07240532400665
224,28.782651486532115
263,28.557486174099645
302,19.969864948917487
341,19.957251363439437
380,28.765696920080008
624,8.260881252401545
2,1, 1, 1, 0,22, 0.00,60.00,Thursday
614,1.0
615,4.0
616,15.0
617,10.0
618,29.29999999999997
619,1.0
620,1.0
621,1.0
622,19.47933584200282
623,161.3500000000002
136,1.072335510981692
224,28.777711024707508
263,28.552186722024655
302,19.965140897571584
341,19.952490451594824
380,28.760742484305248
624,8.259559474786391
2,1, 1, 1, 0,23, 0.00,60.00,Thursday
614,1.0
615,4.0
616,15.0
617,10.0
618,29.29999999999997
619,1.0
620,1.0
621,1.0
622,19.483771319256165
623,161.3500000000002
136,1.072347297687512
224,28.782116297250118
263,28.557289170246898
302,19.96931373011363
341,19.956438684146389
380,28.76489837970124
624,8.252641246405679
2,1, 1, 1, 0,24, 0.00,60.00,Thursday
614,1.0
615,4.0
616,15.0
617,10.0
618,29.29999999999997
619,1.0
620,1.0
621,1.0
622,19.474579254284725
623,161.3500000000002
136,1.0711064083095039
224,28.771702018441528
263,28.540632147761579
302,19.958605790799014
341,19.945521129319265
380,28.75418803366036
624,8.256552129269144
End of Data
 Number of Records Written=         408
